LAMMPS data file via write_data, version 2 Aug 2023, timestep = 14, units = real

9 atoms
3 atom types
8 bonds
2 bond types
6 angles
1 angle types

0 25 xlo xhi
0 25 ylo yhi
0 25 zlo zhi

Masses

1 26.98
2 35.453
3 35.453

Bond Coeffs # harmonic

1 126 2.1771
2 126 2.1771

Angle Coeffs # harmonic

1 12.8 109.47

Atoms # full

8 1 2 -0.37 4.075282739694232 0.6441342108827192 1.8601162340267015 0 0 0
4 1 2 -0.37 22.945839884884144 0.6997135998210458 1.8366473049025052 -1 0 0
2 1 1 0.72 3.1854154815602476 24.902293964271795 0.01668316837352715 0 -1 0
9 1 3 -0.22 1.0108244918547196 24.90055584475394 0.017144825903370037 0 -1 0
1 1 1 0.72 23.836242403156554 24.902276921864235 0.016849152671039758 -1 -1 0
7 1 2 -0.37 4.075524891345305 1.1275794297251385 23.452567131078432 0 0 -1
5 1 2 -0.37 22.945706287664798 1.0792941665144604 23.416332929064346 -1 0 -1
6 1 2 -0.37 4.0759936022279675 22.93523107298938 24.73753586589264 0 -1 -1
3 1 2 -0.37 22.94517021761203 22.927920789177303 24.797123388087446 -1 -1 -1

Velocities

8 0 0 0
4 0 0 0
2 0 0 0
9 0 0 0
1 0 0 0
7 0 0 0
5 0 0 0
6 0 0 0
3 0 0 0

Bonds

1 1 2 6
2 1 2 7
3 1 2 8
4 2 2 9
5 1 1 3
6 1 1 4
7 1 1 5
8 2 1 9

Angles

1 1 6 2 7
2 1 6 2 8
3 1 7 2 8
4 1 3 1 4
5 1 3 1 5
6 1 4 1 5
